/*--------------------------------*- C++ -*----------------------------------*\
| =========                 |                                                 |
| \\      /  F ield         | OpenFOAM: The Open Source CFD Toolbox           |
|  \\    /   O peration     | Version:  2406                                  |
|   \\  /    A nd           | Website:  www.openfoam.com                      |
|    \\/     M anipulation  |                                                 |
\*---------------------------------------------------------------------------*/
FoamFile
{
    version     2.0;
    format      ascii;
    arch        "LSB;label=32;scalar=64";
    class       volScalarField;
    location    "15.65";
    object      p;
}
// * * * * * * * * * * * * * * * * * * * * * * * * * * * * * * * * * * * * * //

dimensions      [0 2 -2 0 0 0 0];

internalField   nonuniform List<scalar> 
3600
(
0.022426
0.0224168
0.0224101
0.0223961
0.0223894
0.0223768
0.022371
0.0223594
0.022353
0.0223412
0.0223335
0.0223213
0.0223126
0.0223007
0.0222921
0.0222819
0.0222753
0.0222689
0.0222668
0.0222667
0.0222719
0.0222806
0.0222952
0.0223141
0.0223384
0.0223659
0.0223961
0.0224258
0.0224526
0.0224721
0.0224803
0.0224722
0.0224429
0.0223881
0.0223043
0.0221896
0.0220432
0.0218676
0.0216655
0.0214436
0.0212073
0.0209657
0.0207244
0.0204927
0.0202733
0.0200739
0.0198933
0.0197374
0.0196008
0.0194889
0.0193926
0.019319
0.0192555
0.0192125
0.0191745
0.0191562
0.0191388
0.019142
0.0191413
0.0191563
0.0224346
0.0224249
0.0224214
0.0224095
0.0224055
0.0223941
0.0223898
0.0223787
0.0223732
0.0223618
0.0223546
0.0223428
0.0223345
0.0223228
0.0223143
0.0223039
0.022297
0.0222899
0.0222868
0.0222851
0.0222883
0.0222945
0.022306
0.022321
0.0223407
0.0223629
0.0223872
0.0224104
0.0224304
0.0224429
0.0224442
0.0224294
0.0223943
0.0223346
0.0222469
0.0221298
0.0219827
0.021808
0.0216086
0.0213911
0.0211608
0.0209267
0.0206937
0.0204708
0.0202603
0.0200696
0.0198968
0.0197477
0.0196165
0.0195091
0.0194159
0.0193445
0.0192822
0.0192398
0.0192012
0.019182
0.0191616
0.0191618
0.019156
0.0191712
0.0224426
0.0224285
0.0224256
0.0224124
0.0224096
0.0223981
0.0223947
0.0223836
0.0223786
0.0223671
0.0223601
0.022348
0.0223395
0.0223272
0.0223182
0.022307
0.0222992
0.0222909
0.0222866
0.0222835
0.0222853
0.02229
0.0223001
0.022314
0.0223329
0.0223548
0.0223793
0.0224034
0.0224248
0.0224393
0.0224429
0.0224306
0.0223977
0.0223395
0.0222525
0.0221347
0.0219854
0.0218071
0.0216028
0.0213796
0.0211433
0.0209034
0.0206656
0.0204392
0.0202268
0.0200357
0.0198639
0.0197171
0.0195889
0.0194849
0.0193951
0.0193271
0.0192676
0.0192279
0.0191909
0.0191736
0.0191536
0.0191557
0.0191497
0.01917
0.022456
0.0224372
0.022436
0.0224223
0.0224221
0.022411
0.0224095
0.0223988
0.0223948
0.0223833
0.0223768
0.0223644
0.0223557
0.0223427
0.0223329
0.0223202
0.0223107
0.0223001
0.0222931
0.0222868
0.022285
0.0222856
0.0222915
0.0223009
0.0223154
0.022333
0.0223536
0.0223742
0.0223929
0.0224053
0.0224075
0.0223943
0.0223608
0.0223022
0.0222146
0.0220958
0.0219448
0.021764
0.0215566
0.02133
0.0210903
0.0208478
0.0206084
0.0203821
0.0201714
0.0199839
0.0198171
0.0196764
0.0195547
0.0194574
0.0193739
0.0193117
0.0192568
0.0192211
0.0191865
0.0191712
0.0191511
0.0191539
0.0191466
0.0191701
0.0224613
0.0224368
0.0224363
0.0224205
0.0224217
0.02241
0.0224097
0.0223985
0.0223952
0.0223831
0.0223766
0.0223632
0.0223539
0.0223394
0.0223281
0.0223134
0.0223016
0.0222882
0.022278
0.0222681
0.0222625
0.022259
0.0222608
0.0222662
0.0222772
0.0222918
0.0223104
0.0223301
0.0223491
0.022363
0.022368
0.0223586
0.0223295
0.0222754
0.0221918
0.0220756
0.0219253
0.021743
0.0215315
0.0212984
0.0210504
0.0207986
0.0205502
0.020316
0.0200995
0.0199087
0.0197413
0.0196025
0.0194846
0.0193926
0.019315
0.019259
0.0192098
0.0191796
0.0191492
0.019138
0.0191202
0.0191261
0.0191197
0.0191463
0.0224662
0.0224363
0.0224374
0.02242
0.0224236
0.0224116
0.022413
0.0224016
0.0223991
0.0223865
0.0223799
0.0223655
0.0223553
0.0223391
0.0223259
0.0223082
0.0222931
0.0222751
0.0222598
0.0222435
0.0222305
0.0222187
0.0222113
0.0222066
0.0222071
0.022211
0.0222192
0.022229
0.0222395
0.0222468
0.0222476
0.0222367
0.0222092
0.0221595
0.0220825
0.0219745
0.0218328
0.0216582
0.0214527
0.0212229
0.0209756
0.0207222
0.0204705
0.0202328
0.0200136
0.0198218
0.0196554
0.01952
0.0194074
0.0193221
0.0192516
0.019203
0.0191605
0.0191365
0.0191108
0.0191036
0.0190882
0.0190961
0.0190902
0.0191178
0.0224569
0.0224215
0.0224236
0.0224041
0.0224092
0.0223961
0.0223985
0.0223862
0.0223839
0.0223702
0.0223631
0.0223471
0.0223355
0.022317
0.0223012
0.0222799
0.0222603
0.0222365
0.022214
0.0221887
0.022165
0.0221402
0.0221177
0.0220957
0.0220768
0.0220597
0.022046
0.0220341
0.0220243
0.0220143
0.0220024
0.0219849
0.0219579
0.021916
0.021854
0.0217668
0.0216498
0.021501
0.02132
0.0211109
0.0208786
0.020634
0.0203854
0.0201463
0.0199232
0.0197271
0.0195576
0.0194212
0.01931
0.0192283
0.0191632
0.0191208
0.0190848
0.019067
0.0190469
0.0190444
0.0190326
0.0190432
0.0190388
0.019067
0.0224412
0.0224007
0.0224045
0.0223832
0.0223904
0.0223765
0.0223801
0.022367
0.0223651
0.0223502
0.0223426
0.0223249
0.0223116
0.0222901
0.0222708
0.0222441
0.0222176
0.0221842
0.0221493
0.0221077
0.0220633
0.0220124
0.0219582
0.0218982
0.0218354
0.0217688
0.0217018
0.0216351
0.0215722
0.0215142
0.0214634
0.0214193
0.021381
0.0213448
0.0213058
0.0212574
0.0211924
0.0211046
0.0209881
0.0208419
0.0206659
0.0204671
0.0202521
0.0200347
0.0198232
0.0196317
0.0194632
0.0193268
0.0192165
0.0191372
0.0190761
0.0190389
0.0190086
0.0189963
0.0189812
0.0189827
0.0189741
0.0189863
0.018983
0.0190107
0.022405
0.0223595
0.0223645
0.0223413
0.0223498
0.0223345
0.0223387
0.0223241
0.022322
0.0223055
0.0222968
0.0222768
0.0222612
0.0222357
0.0222112
0.0221767
0.0221395
0.022091
0.0220354
0.0219657
0.0218844
0.0217859
0.0216718
0.021539
0.0213907
0.021228
0.0210575
0.0208846
0.0207189
0.020568
0.0204404
0.0203413
0.0202743
0.0202389
0.0202314
0.0202442
0.0202671
0.0202883
0.0202947
0.0202761
0.020223
0.0201339
0.0200091
0.0198587
0.0196916
0.0195251
0.0193677
0.019234
0.0191229
0.0190424
0.0189815
0.0189459
0.0189187
0.01891
0.0188989
0.0189036
0.018898
0.0189116
0.0189096
0.0189364
0.0223562
0.0223062
0.0223128
0.0222879
0.022298
0.0222816
0.0222865
0.0222706
0.0222683
0.02225
0.0222401
0.0222172
0.0221982
0.0221669
0.0221341
0.0220869
0.0220312
0.0219558
0.0218627
0.0217414
0.0215912
0.0214033
0.0211775
0.0209101
0.0206068
0.020273
0.0199224
0.0195691
0.0192317
0.0189268
0.018671
0.0184766
0.0183531
0.0183038
0.0183276
0.0184177
0.0185618
0.0187434
0.0189418
0.0191355
0.0193021
0.0194249
0.0194905
0.019498
0.0194505
0.0193652
0.0192557
0.0191454
0.0190425
0.0189626
0.0189
0.0188629
0.0188357
0.0188276
0.0188182
0.0188241
0.01882
0.0188337
0.0188322
0.0188574
0.0222801
0.0222257
0.0222336
0.0222067
0.0222179
0.0221997
0.0222047
0.0221868
0.0221836
0.0221628
0.0221506
0.0221236
0.0220991
0.0220586
0.0220123
0.021944
0.0218574
0.0217364
0.0215789
0.0213684
0.0210996
0.0207597
0.0203477
0.0198626
0.0193167
0.0187251
0.0181131
0.0175063
0.0169342
0.0164226
0.0159957
0.0156715
0.0154643
0.0153813
0.0154246
0.0155897
0.0158655
0.0162348
0.0166728
0.0171497
0.0176301
0.0180794
0.0184632
0.0187591
0.0189524
0.0190497
0.0190639
0.0190259
0.0189575
0.0188886
0.0188258
0.0187841
0.0187528
0.0187412
0.0187302
0.0187347
0.0187303
0.0187429
0.0187413
0.0187647
0.0221853
0.0221271
0.0221363
0.0221079
0.02212
0.0221003
0.0221051
0.0220853
0.0220808
0.0220571
0.0220416
0.0220086
0.0219751
0.0219199
0.0218508
0.0217472
0.0216076
0.0214094
0.0211428
0.0207841
0.0203227
0.0197443
0.0190521
0.0182545
0.0173773
0.016451
0.0155154
0.0146086
0.013769
0.0130281
0.0124136
0.0119451
0.0116381
0.0115015
0.0115398
0.0117523
0.0121327
0.0126686
0.0133389
0.0141142
0.0149543
0.0158117
0.0166313
0.0173617
0.0179567
0.0183936
0.018667
0.0188034
0.018836
0.0188137
0.0187653
0.0187219
0.018684
0.0186647
0.0186482
0.0186475
0.0186402
0.0186495
0.0186465
0.0186676
0.0220562
0.0219942
0.0220044
0.021974
0.0219864
0.0219644
0.0219682
0.0219453
0.0219383
0.02191
0.0218888
0.021846
0.0217978
0.0217187
0.0216126
0.0214518
0.0212273
0.0209061
0.0204694
0.0198861
0.0191444
0.0182357
0.0171767
0.0159944
0.014735
0.0134469
0.0121837
0.0109912
0.00991077
0.00897237
0.00820019
0.00760964
0.00721246
0.00701554
0.00702395
0.00724019
0.00766429
0.00829292
0.00911619
0.0101165
0.0112625
0.01251
0.0137962
0.0150481
0.016184
0.0171351
0.0178514
0.0183264
0.0185847
0.0186881
0.0186945
0.0186644
0.0186223
0.0185922
0.0185658
0.0185557
0.0185423
0.0185459
0.0185402
0.0185587
0.0219031
0.021838
0.0218491
0.0218169
0.0218292
0.0218048
0.021807
0.0217806
0.0217699
0.0217352
0.0217051
0.0216474
0.0215759
0.0214591
0.0212945
0.0210442
0.0206882
0.0201816
0.0194974
0.0186025
0.0174932
0.016179
0.0147015
0.0131135
0.0114836
0.00987469
0.00834676
0.00694421
0.00570207
0.00464124
0.00377618
0.00311345
0.00265778
0.00241147
0.00237763
0.00256002
0.00296328
0.00359295
0.00445209
0.00554069
0.0068479
0.00835008
0.0100001
0.0117279
0.0134355
0.0150126
0.0163484
0.0173682
0.0180452
0.0184215
0.0185739
0.0186006
0.0185694
0.0185297
0.0184903
0.0184663
0.0184431
0.018438
0.0184278
0.0184431
0.0217088
0.0216408
0.0216522
0.0216175
0.0216287
0.0216008
0.0215998
0.021568
0.021551
0.0215064
0.0214619
0.0213811
0.0212736
0.0210996
0.0208469
0.0204648
0.0199201
0.0191574
0.0181472
0.0168662
0.015333
0.013588
0.011705
0.00976284
0.00784529
0.00601913
0.00433867
0.00283662
0.00153405
0.000438131
-0.000448532
-0.00112869
-0.00160461
-0.00187854
-0.00195025
-0.0018166
-0.00147178
-0.000905689
-0.0001071
0.000938158
0.0022396
0.00380139
0.00560864
0.00762271
0.00976554
0.0119212
0.0139388
0.0156647
0.0169786
0.0178422
0.0183038
0.0184828
0.0185038
0.0184664
0.0184141
0.0183722
0.0183353
0.0183183
0.0183016
0.018313
0.0214868
0.0214166
0.0214279
0.0213909
0.0214002
0.0213681
0.0213626
0.0213239
0.0212979
0.0212393
0.0211738
0.0210594
0.0208989
0.020642
0.0202635
0.0196976
0.0188993
0.0178092
0.0164078
0.014697
0.012732
0.0105908
0.00837714
0.00618569
0.00410125
0.00217997
0.00045949
-0.00104573
-0.00233094
-0.00340186
-0.00426513
-0.00492952
-0.00540125
-0.00568485
-0.0057821
-0.00569102
-0.00540736
-0.00492102
-0.00421986
-0.00328429
-0.00209441
-0.000625925
0.00113659
0.00319646
0.00552328
0.0080416
0.0106145
0.013052
0.0151429
0.0167196
0.0177227
0.0182269
0.0183935
0.0183931
0.0183365
0.0182747
0.0182207
0.0181879
0.0181627
0.0181689
0.0212179
0.0211456
0.021156
0.0211157
0.0211214
0.0210833
0.0210708
0.0210219
0.0209824
0.0209035
0.0208074
0.0206451
0.0204101
0.0200388
0.0194911
0.0186872
0.0175758
0.0161055
0.0142828
0.0121492
0.00980289
0.00735563
0.00492812
0.00261336
0.000481282
-0.00143364
-0.00311563
-0.00456853
-0.00580062
-0.00682552
-0.00765401
-0.00829603
-0.00875807
-0.00904406
-0.00915624
-0.00909321
-0.00885324
-0.00842871
-0.00781154
-0.00698427
-0.00592785
-0.00461164
-0.00300533
-0.00107489
0.00119653
0.00379572
0.00664947
0.00960299
0.012422
0.0148294
0.0166051
0.0176767
0.0181611
0.0182779
0.0182422
0.0181641
0.0180907
0.0180381
0.0180022
0.0180013
0.0209199
0.0208463
0.0208553
0.0208114
0.0208123
0.020767
0.0207452
0.0206833
0.0206255
0.0205194
0.0203819
0.0201551
0.0198208
0.0193
0.0185377
0.0174449
0.0159745
0.0140987
0.0118645
0.00936035
0.00672277
0.00408281
0.00155891
-0.000774507
-0.00287329
-0.00472837
-0.0063439
-0.0077367
-0.00892172
-0.00991425
-0.010724
-0.011358
-0.0118201
-0.0121115
-0.0122335
-0.0121846
-0.0119654
-0.0115715
-0.011001
-0.0102419
-0.00928324
-0.00809841
-0.00665827
-0.00491779
-0.00283354
-0.000367667
0.00248153
0.00564348
0.00894645
0.0120959
0.0147511
0.0166285
0.0176779
0.0180694
0.0181142
0.0180345
0.0179427
0.0178658
0.0178169
0.0178059
0.0205711
0.0204963
0.0205027
0.0204539
0.0204477
0.0203926
0.0203579
0.0202785
0.020196
0.0200537
0.0198614
0.0195508
0.0190899
0.0183846
0.0173676
0.0159494
0.0141009
0.0118318
0.00923786
0.00645056
0.00363033
0.000907484
-0.0016196
-0.00390579
-0.0059355
-0.00772159
-0.00928167
-0.0106382
-0.0118062
-0.0127976
-0.0136173
-0.0142666
-0.0147452
-0.0150501
-0.0151812
-0.0151357
-0.0149169
-0.0145225
-0.0139574
-0.0132162
-0.0122983
-0.0111862
-0.00986166
-0.00828353
-0.00640454
-0.00416208
-0.00150178
0.00159158
0.00505425
0.00867228
0.0120993
0.014894
0.0167566
0.0176644
0.0179138
0.0178681
0.0177665
0.0176605
0.0175961
0.0175709
0.0201952
0.0201202
0.0201234
0.0200692
0.0200542
0.0199877
0.0199369
0.0198359
0.0197225
0.0195349
0.0192742
0.0188605
0.0182468
0.0173255
0.0160233
0.0142613
0.0120414
0.00942072
0.00654196
0.00356714
0.000660979
-0.00206524
-0.00454433
-0.00676296
-0.00873004
-0.010473
-0.0120152
-0.0133778
-0.0145715
-0.0156008
-0.0164641
-0.0171555
-0.0176699
-0.0179995
-0.0181427
-0.0180947
-0.0178608
-0.0174405
-0.0168448
-0.016074
-0.0151387
-0.0140316
-0.0127493
-0.0112625
-0.00953502
-0.00750226
-0.00508864
-0.00222273
0.00113235
0.00488747
0.00880318
0.0124127
0.0152265
0.016906
0.0175827
0.0176428
0.0175533
0.0174165
0.0173329
0.0172882
0.0197672
0.0196922
0.0196906
0.0196296
0.0196031
0.019522
0.0194509
0.019323
0.0191712
0.0189283
0.0185849
0.0180494
0.0172599
0.0160998
0.0144977
0.0123967
0.00983979
0.00693238
0.00385474
0.000781357
-0.00213731
-0.00482097
-0.00723688
-0.00939932
-0.0113343
-0.0130755
-0.0146456
-0.0160597
-0.0173206
-0.0184238
-0.0193605
-0.0201173
-0.0206844
-0.0210491
-0.0212086
-0.0211555
-0.0208972
-0.0204333
-0.0197808
-0.0189435
-0.0179429
-0.0167801
-0.0154683
-0.0139917
-0.0123333
-0.0104398
-0.00823948
-0.00563849
-0.00253594
0.00109236
0.00516216
0.00930941
0.0130091
0.0156305
0.0169998
0.0173271
0.0172789
0.0171231
0.017014
0.016944
0.0193188
0.0192449
0.019238
0.0191697
0.0191298
0.0190322
0.0189374
0.0187783
0.0185816
0.0182745
0.0178362
0.0171632
0.0161812
0.0147697
0.0128681
0.010451
0.00760609
0.00448212
0.00128189
-0.0018253
-0.00471642
-0.00734669
-0.00971475
-0.011855
-0.0138026
-0.0155907
-0.0172361
-0.0187447
-0.0201104
-0.0213188
-0.022354
-0.0231954
-0.0238295
-0.0242388
-0.0244197
-0.0243621
-0.0240755
-0.0235583
-0.0228328
-0.0219045
-0.0208044
-0.01954
-0.0181397
-0.0166009
-0.0149275
-0.0130843
-0.0110175
-0.00863673
-0.00581598
-0.0024575
0.00149625
0.00584862
0.0101823
0.0137508
0.0160075
0.0168701
0.0169177
0.0167674
0.0166305
0.0165264
0.0188202
0.0187476
0.0187337
0.0186566
0.0186008
0.0184837
0.0183611
0.0181661
0.017918
0.0175385
0.0169949
0.0161735
0.0149903
0.0133276
0.0111429
0.0084483
0.00537437
0.00210237
-0.00115836
-0.00425749
-0.00710621
-0.0096936
-0.0120433
-0.0142016
-0.016206
-0.0180837
-0.0198433
-0.0214793
-0.0229764
-0.0243107
-0.0254605
-0.0263982
-0.0271082
-0.0275678
-0.0277742
-0.0277134
-0.0273979
-0.0268236
-0.0260179
-0.0249858
-0.0237666
-0.022371
-0.0208414
-0.0191848
-0.0174268
-0.01555
-0.0135262
-0.0112822
-0.00869613
-0.00564001
-0.00195669
0.00231579
0.00696158
0.0112806
0.0145092
0.0161349
0.0164644
0.0163109
0.0161764
0.0160162
0.0183127
0.0182429
0.0182217
0.0181358
0.0180624
0.0179244
0.0177713
0.017537
0.0172326
0.0167752
0.0161197
0.0151446
0.0137597
0.0118562
0.00941526
0.00648745
0.00324011
-0.000125549
-0.00340726
-0.00648213
-0.00929635
-0.0118676
-0.014237
-0.0164558
-0.0185584
-0.0205628
-0.0224676
-0.0242555
-0.0259031
-0.0273774
-0.0286523
-0.0296941
-0.0304859
-0.0310005
-0.031236
-0.0311746
-0.0308323
-0.0302012
-0.0293147
-0.0281748
-0.0268293
-0.0252879
-0.0236059
-0.0217957
-0.0199027
-0.0179252
-0.0158625
-0.013665
-0.0112318
-0.00843633
-0.00507102
-0.00105929
0.00360278
0.00836331
0.012492
0.0149815
0.0158938
0.0157265
0.015638
0.0153984
0.0177603
0.0176933
0.0176635
0.0175675
0.0174744
0.0173135
0.017127
0.0168506
0.0164866
0.0159479
0.0151782
0.0140505
0.0124724
0.0103485
0.00768625
0.00457245
0.00120213
-0.00221531
-0.00549476
-0.00854377
-0.0113408
-0.0139251
-0.0163488
-0.018662
-0.0208931
-0.0230485
-0.0251166
-0.0270689
-0.0288752
-0.0304945
-0.0318982
-0.0330462
-0.0339221
-0.0344929
-0.0347595
-0.0346987
-0.0343313
-0.0336447
-0.0326794
-0.0314325
-0.029961
-0.0282705
-0.0264281
-0.0244465
-0.0223889
-0.0202646
-0.0181
-0.015869
-0.0135013
-0.0108896
-0.00781647
-0.00413866
0.000320333
0.00522137
0.0100055
0.0133812
0.0150722
0.015034
0.0149635
0.014667
0.0172156
0.0171533
0.017115
0.0170096
0.0168962
0.0167119
0.0164907
0.0161711
0.0157461
0.0151257
0.0142434
0.0129698
0.0112131
0.00889463
0.00604758
0.00278993
-0.00066504
-0.00410939
-0.00738053
-0.0104157
-0.0132204
-0.0158489
-0.0183584
-0.0207943
-0.0231766
-0.0254994
-0.0277421
-0.0298656
-0.0318351
-0.0336021
-0.0351371
-0.0363936
-0.0373563
-0.0379857
-0.0382859
-0.0382273
-0.0378371
-0.0370963
-0.036055
-0.0347037
-0.0331102
-0.0312736
-0.0292727
-0.0271161
-0.0248823
-0.022586
-0.0202778
-0.0179528
-0.0155738
-0.0130621
-0.0102166
-0.00686871
-0.00273499
0.0020667
0.00718538
0.0113738
0.0138623
0.0142506
0.0141074
0.0138178
0.0166331
0.0165754
0.0165278
0.0164123
0.0162776
0.0160692
0.0158128
0.0154501
0.0149652
0.0142663
0.0132781
0.0118712
0.0099567
0.00747397
0.00447918
0.00111546
-0.00239454
-0.00585054
-0.00911469
-0.0121502
-0.0149842
-0.0176801
-0.0202965
-0.0228708
-0.0254146
-0.0279095
-0.0303279
-0.0326211
-0.0347519
-0.0366647
-0.0383304
-0.0396953
-0.040746
-0.0414344
-0.0417695
-0.0417129
-0.0413002
-0.0405046
-0.0393881
-0.0379332
-0.0362216
-0.0342434
-0.0320909
-0.0297639
-0.0273556
-0.024879
-0.0224063
-0.0199479
-0.0174993
-0.0150134
-0.0123184
-0.00925397
-0.00548012
-0.000945456
0.00422404
0.0090195
0.0122545
0.0133101
0.013079
0.012828
0.0160792
0.0160285
0.0159723
0.0158485
0.0156929
0.0154616
0.0151706
0.0147663
0.0142239
0.0134518
0.0123668
0.0108424
0.0087935
0.00617683
0.0030675
-0.000373049
-0.00391969
-0.00738342
-0.01065
-0.0137037
-0.0165883
-0.019371
-0.0221097
-0.0248322
-0.0275422
-0.0302098
-0.0328024
-0.0352627
-0.0375535
-0.0396116
-0.0414099
-0.0428853
-0.0440277
-0.0447781
-0.0451512
-0.0450975
-0.0446635
-0.043812
-0.0426205
-0.0410618
-0.0392351
-0.0371193
-0.0348234
-0.0323348
-0.0297617
-0.0271089
-0.0244678
-0.0218566
-0.0193005
-0.0167836
-0.0141669
-0.0113232
-0.00788545
-0.00371509
0.00130353
0.00641175
0.0103229
0.0120931
0.011922
0.0116634
0.015495
0.0154507
0.0153857
0.0152535
0.0150775
0.0148242
0.0145005
0.0140583
0.013464
0.0126278
0.01146
0.00983839
0.00768168
0.00496238
0.00176924
-0.00172351
-0.00529369
-0.00876392
-0.0120413
-0.0151259
-0.0180736
-0.0209518
-0.0238169
-0.026686
-0.0295572
-0.0323893
-0.0351479
-0.0377675
-0.0402129
-0.0424124
-0.0443424
-0.0459282
-0.047164
-0.047977
-0.0483895
-0.0483379
-0.0478822
-0.0469721
-0.0457044
-0.0440392
-0.0420983
-0.0398468
-0.0374147
-0.0347733
-0.0320484
-0.0292306
-0.0264291
-0.0236614
-0.0209795
-0.0183934
-0.0157975
-0.0131106
-0.00995743
-0.00618513
-0.00144453
0.00368583
0.00815761
0.0105485
0.0106752
0.010316
0.0149633
0.0149279
0.0148557
0.0147178
0.0145233
0.0142507
0.0138968
0.0134206
0.01278
0.0118891
0.0106527
0.00895411
0.00671534
0.00392173
0.000670461
-0.00285697
-0.00644447
-0.0099255
-0.0132246
-0.0163523
-0.019373
-0.0223519
-0.0253435
-0.0283545
-0.0313795
-0.0343672
-0.0372838
-0.0400556
-0.0426516
-0.0449902
-0.0470524
-0.0487497
-0.0500821
-0.0509597
-0.0514149
-0.0513666
-0.050891
-0.0499216
-0.0485781
-0.0468054
-0.0447519
-0.0423663
-0.039805
-0.0370195
-0.0341575
-0.0311891
-0.0282429
-0.0253264
-0.0225168
-0.0198407
-0.0172264
-0.01464
-0.0117147
-0.00832696
-0.00393788
0.000990538
0.00584197
0.00871615
0.00932328
0.00879788
0.0144057
0.0143783
0.0142994
0.0141563
0.013945
0.0136558
0.0132761
0.0127722
0.0120948
0.0111627
0.00987602
0.00812457
0.00583156
0.00299247
-0.000292793
-0.00383882
-0.007438
-0.0109314
-0.0142579
-0.0174327
-0.0205271
-0.0236015
-0.0267101
-0.0298493
-0.0330133
-0.0361406
-0.0392015
-0.0421127
-0.0448501
-0.0473194
-0.0495094
-0.0513136
-0.0527412
-0.0536812
-0.0541794
-0.0541329
-0.0536384
-0.0526086
-0.0511906
-0.0493095
-0.0471459
-0.0446279
-0.0419439
-0.0390219
-0.0360371
-0.0329331
-0.0298616
-0.0268104
-0.0238829
-0.0211098
-0.0184559
-0.0159253
-0.0131774
-0.0101328
-0.00613068
-0.00154781
0.00345719
0.00667201
0.00780614
0.00712159
0.0139262
0.0139094
0.0138259
0.0136813
0.0134562
0.0131543
0.0127526
0.0122265
0.0115197
0.0105576
0.00923657
0.00745328
0.00513064
0.00227073
-0.00102853
-0.0045816
-0.00819008
-0.0117
-0.01506
-0.0182858
-0.0214534
-0.0246169
-0.0278318
-0.031085
-0.034373
-0.0376243
-0.040816
-0.0438539
-0.0467232
-0.0493143
-0.0516263
-0.053532
-0.0550528
-0.0560528
-0.0565954
-0.0565513
-0.0560422
-0.0549547
-0.0534683
-0.0514828
-0.0492161
-0.046571
-0.0437738
-0.0407244
-0.0376318
-0.0344075
-0.0312321
-0.0280637
-0.0250364
-0.0221697
-0.0194701
-0.0169638
-0.014354
-0.0116007
-0.00799291
-0.00383245
0.00110051
0.00451017
0.00609874
0.00532165
0.0134197
0.0134117
0.0133246
0.0131793
0.0129434
0.0126327
0.0122153
0.0116757
0.0109513
0.0099753
0.00864043
0.0068506
0.00452573
0.00167197
-0.00162007
-0.0051662
-0.00877855
-0.0123035
-0.0156967
-0.018969
-0.0222009
-0.0254383
-0.0287414
-0.0320865
-0.0354771
-0.03883
-0.0421329
-0.0452774
-0.0482619
-0.0509578
-0.0533788
-0.0553723
-0.0569778
-0.058029
-0.058613
-0.0585684
-0.0580475
-0.0569049
-0.0553576
-0.0532737
-0.0509142
-0.0481496
-0.0452511
-0.0420842
-0.0388994
-0.0355695
-0.0323115
-0.0290441
-0.0259387
-0.0229884
-0.0202481
-0.0177463
-0.0152467
-0.0127329
-0.00950629
-0.00579724
-0.00112152
0.00233491
0.00425042
0.00346189
0.0130172
0.0130208
0.0129328
0.012791
0.0125483
0.0122333
0.0118047
0.0112574
0.010523
0.00954383
0.00820992
0.00643275
0.00412771
0.00130203
-0.00196496
-0.00549308
-0.00910531
-0.0126455
-0.0160728
-0.019389
-0.0226779
-0.0259759
-0.0293504
-0.0327671
-0.03624
-0.039673
-0.0430674
-0.046298
-0.0493799
-0.0521617
-0.0546766
-0.0567427
-0.0584228
-0.0595162
-0.0601394
-0.0600933
-0.059567
-0.0583759
-0.0567809
-0.0546107
-0.0521747
-0.0493043
-0.0463218
-0.043051
-0.0397925
-0.0363723
-0.0330535
-0.0297053
-0.0265451
-0.023525
-0.0207563
-0.0182493
-0.0158423
-0.0135228
-0.0106518
-0.00739134
-0.00310144
0.000261214
0.0023701
0.0016301
0.0125779
0.0125902
0.0125022
0.0123649
0.0121191
0.0118049
0.0113729
0.010828
0.0100968
0.00913181
0.00781984
0.00608069
0.00382239
0.00105203
-0.00216763
-0.00566063
-0.0092632
-0.0128115
-0.0162674
-0.0196172
-0.0229496
-0.0262876
-0.0297108
-0.0331719
-0.0367013
-0.0401858
-0.0436462
-0.0469349
-0.0500897
-0.0529304
-0.0555171
-0.0576325
-0.059371
-0.0604909
-0.0611465
-0.0610936
-0.0605659
-0.0593316
-0.0577022
-0.055458
-0.0529645
-0.0500037
-0.046957
-0.0435974
-0.0402847
-0.0367892
-0.0334306
-0.0300178
-0.0268259
-0.0237499
-0.020969
-0.0184536
-0.0161296
-0.0139663
-0.0114189
-0.00858256
-0.00475282
-0.00160427
0.000574556
-8.94319e-05
0.0122699
0.0122936
0.0122085
0.0120801
0.0118356
0.0115268
0.0110956
0.0105581
0.00983617
0.00889381
0.00761532
0.00592973
0.00373675
0.00104175
-0.00211233
-0.00555609
-0.00914044
-0.0126921
-0.0161734
-0.0195511
-0.0229176
-0.0262805
-0.0297338
-0.0332164
-0.036779
-0.0402893
-0.0437913
-0.0471111
-0.0503143
-0.0531872
-0.0558233
-0.0579646
-0.0597455
-0.0608771
-0.0615597
-0.0614969
-0.0609749
-0.0597061
-0.05806
-0.0557591
-0.0532319
-0.050201
-0.0471151
-0.0436854
-0.0403413
-0.0367861
-0.0334092
-0.0299466
-0.0267449
-0.0236263
-0.020851
-0.0183276
-0.0160839
-0.0140458
-0.0117902
-0.0093409
-0.00600522
-0.00316372
-0.0010292
-0.00161658
0.0119036
0.0119347
0.0118532
0.0117342
0.0114954
0.0111978
0.0107764
0.0102576
0.00955905
0.00865704
0.0074325
0.00582534
0.00372414
0.00113348
-0.00192915
-0.00529996
-0.00884976
-0.0123908
-0.0158883
-0.0192808
-0.0226678
-0.0260343
-0.0294955
-0.0329706
-0.0365393
-0.0400434
-0.0435589
-0.0468769
-0.0501003
-0.0529727
-0.0556319
-0.0577704
-0.0595738
-0.0606969
-0.0613976
-0.0613173
-0.0608052
-0.0595067
-0.0578598
-0.0555167
-0.0529789
-0.0498966
-0.0467966
-0.0433144
-0.0399616
-0.0363606
-0.0329854
-0.0294845
-0.0262927
-0.0231417
-0.0203893
-0.0178593
-0.0156967
-0.0137576
-0.0117634
-0.00965511
-0.00681722
-0.00434349
-0.00235952
-0.00288691
0.0116989
0.0117404
0.0116652
0.01156
0.0113306
0.0110483
0.0106398
0.0101431
0.00947093
0.00861386
0.00744958
0.00593082
0.00393482
0.00146592
-0.00148636
-0.00476565
-0.00826632
-0.0117861
-0.0152933
-0.0186944
-0.022095
-0.0254528
-0.0289068
-0.0323533
-0.0359063
-0.0393777
-0.042882
-0.0461699
-0.0493881
-0.0522315
-0.0548902
-0.0570007
-0.0588093
-0.059907
-0.0606196
-0.0605169
-0.0600215
-0.0587011
-0.0570718
-0.0547033
-0.0521809
-0.049068
-0.0459814
-0.0424655
-0.0391283
-0.035495
-0.0321413
-0.028611
-0.0254467
-0.0222701
-0.0195567
-0.0170205
-0.014943
-0.0130806
-0.011322
-0.00950587
-0.00715156
-0.00507617
-0.00333855
-0.0038299
0.0114002
0.0114467
0.011378
0.0112865
0.0110715
0.0108112
0.0104256
0.0099637
0.00933279
0.00853889
0.00745442
0.00604812
0.00418252
0.00186599
-0.000946346
-0.00410224
-0.00752893
-0.0110047
-0.0145079
-0.0179031
-0.0213071
-0.024639
-0.0280694
-0.0314618
-0.0349759
-0.0383838
-0.0418513
-0.0450767
-0.0482643
-0.0510472
-0.0536824
-0.0557369
-0.0575334
-0.0585855
-0.0593021
-0.0591677
-0.0586928
-0.0573524
-0.0557556
-0.0533726
-0.0508878
-0.0477593
-0.0447107
-0.0411748
-0.0378752
-0.034218
-0.0309033
-0.0273477
-0.0242264
-0.0210263
-0.0183665
-0.015822
-0.013835
-0.0120275
-0.0104815
-0.00890371
-0.00700184
-0.00532186
-0.00390657
-0.00438574
0.0113009
0.0113559
0.0112958
0.0112218
0.0110236
0.010788
0.0104263
0.00999977
0.00940901
0.00867766
0.00767229
0.00638078
0.004651
0.00249871
-0.000156982
-0.0031678
-0.00649982
-0.00991325
-0.0134018
-0.0167839
-0.0201886
-0.0234891
-0.0268897
-0.0302144
-0.033675
-0.0369981
-0.0404093
-0.043548
-0.0466853
-0.0493838
-0.0519778
-0.0539556
-0.0557273
-0.0567194
-0.0574359
-0.0572644
-0.0568164
-0.0554604
-0.0539121
-0.0515263
-0.0491018
-0.0459726
-0.0429864
-0.0394432
-0.0362022
-0.0325275
-0.0292676
-0.0256867
-0.0226214
-0.0193954
-0.0168017
-0.014243
-0.012353
-0.0105793
-0.00922827
-0.00783619
-0.0063486
-0.00503489
-0.00399122
-0.00447493
0.0110545
0.011111
0.0110591
0.0110021
0.010826
0.0106231
0.010297
0.0099208
0.00938646
0.00873733
0.0078299
0.0066765
0.00510512
0.00314748
0.000679061
-0.00214784
-0.00535177
-0.00866841
-0.0121215
-0.0154713
-0.0188701
-0.0221274
-0.0254927
-0.0287331
-0.0321278
-0.0353422
-0.03868
-0.0417053
-0.0447752
-0.0473641
-0.0499029
-0.051782
-0.0535196
-0.054435
-0.0551483
-0.0549299
-0.0545136
-0.0531393
-0.0516519
-0.0492666
-0.0469203
-0.043796
-0.0408918
-0.037345
-0.0341798
-0.0304861
-0.0272945
-0.0236827
-0.0206859
-0.0174271
-0.0149134
-0.0123311
-0.0105472
-0.0087837
-0.00761282
-0.00634781
-0.00522366
-0.00421339
-0.00354976
-0.00404167
0.0110586
0.0111216
0.0110788
0.0110417
0.0108877
0.010718
0.0104246
0.0100955
0.00961086
0.00903691
0.0082181
0.00719552
0.00577657
0.00401537
0.00174274
-0.000880568
-0.00393288
-0.00712628
-0.0105254
-0.0138302
-0.0172216
-0.0204362
-0.0237713
-0.0269265
-0.0302544
-0.0333503
-0.0366066
-0.0395034
-0.042496
-0.04496
-0.0474356
-0.0492035
-0.0509026
-0.0517322
-0.0524432
-0.0521735
-0.0517957
-0.0504037
-0.0489902
-0.0466096
-0.0443586
-0.0412444
-0.0384398
-0.0348908
-0.031816
-0.0280985
-0.0249859
-0.0213328
-0.0184143
-0.01511
-0.0126878
-0.0100673
-0.00839948
-0.00662072
-0.0056225
-0.0044291
-0.0036214
-0.0028351
-0.00252217
-0.00300887
0.0108404
0.0109009
0.0108669
0.0108487
0.0107235
0.010597
0.0103509
0.0100875
0.00967165
0.00919585
0.00848494
0.00761686
0.00636936
0.00483253
0.0027823
0.000403576
-0.00245912
-0.00548239
-0.00879584
-0.0120246
-0.0153993
-0.0185604
-0.0218705
-0.024935
-0.0282005
-0.0311665
-0.0343395
-0.037091
-0.040002
-0.0423239
-0.0447342
-0.0463759
-0.0480377
-0.0487692
-0.0494823
-0.0491514
-0.0488202
-0.0474029
-0.0460746
-0.0436926
-0.0415505
-0.0384394
-0.0357482
-0.0321869
-0.0292146
-0.025459
-0.022437
-0.0187267
-0.0159014
-0.0125362
-0.0102256
-0.00754936
-0.00601672
-0.0041921
-0.00336639
-0.00217863
-0.00163491
-0.000960382
-0.000920448
-0.00136579
0.0109461
0.011011
0.0109854
0.0109881
0.0108876
0.010801
0.0105937
0.010387
0.0100257
0.00963304
0.00901055
0.00827851
0.00718238
0.0058571
0.00402218
0.0018968
-0.000758659
-0.00358163
-0.00678271
-0.00991072
-0.0132598
-0.0163649
-0.0196613
-0.0226451
-0.0258635
-0.0287065
-0.031805
-0.0344105
-0.0372435
-0.0394191
-0.0417667
-0.0432782
-0.0449072
-0.0455376
-0.0462591
-0.0458646
-0.0455882
-0.0441436
-0.0429107
-0.0405246
-0.0385024
-0.0353889
-0.0328208
-0.0292366
-0.0263743
-0.0225648
-0.0196407
-0.0158536
-0.013132
-0.00968408
-0.00750069
-0.00474304
-0.00336416
-0.00145784
-0.00081517
0.000428549
0.000737489
0.0014103
0.00127038
0.000921435
0.0107253
0.0107832
0.0107659
0.0107891
0.0107226
0.01069
0.0105406
0.0104159
0.010133
0.00985275
0.00934064
0.00877125
0.00784273
0.0067538
0.00515199
0.00331587
0.00090069
-0.00166879
-0.00471674
-0.00769495
-0.0109966
-0.0140226
-0.0173113
-0.0202125
-0.0234034
-0.0261257
-0.0291682
-0.0316249
-0.0343936
-0.0364156
-0.0387126
-0.0400848
-0.0416935
-0.0422128
-0.0429562
-0.0424866
-0.0422787
-0.0407927
-0.0396684
-0.037261
-0.0353708
-0.0322337
-0.0297996
-0.0261677
-0.0234276
-0.019538
-0.0167295
-0.0128412
-0.0102509
-0.00669755
-0.00467893
-0.00181229
-0.000628186
0.00140458
0.00183546
0.00321703
0.00331256
0.00412989
0.00392792
0.00375833
0.0109344
0.0109955
0.0109847
0.0110294
0.0109873
0.0109999
0.0108909
0.0108303
0.010601
0.0104076
0.0099743
0.00953667
0.00874036
0.00785784
0.0064611
0.00490249
0.00272632
0.000431113
-0.00243773
-0.00523018
-0.00846128
-0.0113895
-0.014673
-0.0174984
-0.0206843
-0.0233043
-0.0263168
-0.0286407
-0.0313659
-0.0332441
-0.0355062
-0.0367447
-0.038346
-0.038757
-0.0395333
-0.0389883
-0.038858
-0.0373269
-0.0363183
-0.0338812
-0.0321279
-0.0289538
-0.0266572
-0.0229597
-0.0203461
-0.0163557
-0.0136719
-0.00965862
-0.00721575
-0.00352667
-0.00169603
0.0013216
0.00228047
0.00449691
0.00467897
0.00627757
0.00613651
0.00721961
0.00702496
0.00712626
0.0106734
0.0107221
0.010719
0.0107866
0.0107833
0.0108628
0.0108212
0.0108607
0.0107167
0.01065